# vtk DataFile Version 3.0
Example File 2-D grid for pseudocolor & contour plot
ASCII
DATASET STRUCTURED_POINTS
DIMENSIONS 3 2 2
ORIGIN 5. 7. 9.
SPACING 1. 1. 1.
POINT_DATA 12
SCALARS density double
LOOKUP_TABLE default
5.
9.
3.
2.
1.
7.
4.
8.
3.
3.
2.
1.
SCALARS temperature double
LOOKUP_TABLE default
-5.
-9.
-3.
-2.
-8.
-6.
-4.
-7.
-1.
-2.
-8.
-6.
VECTORS toroidal double
-0.00000000028035 0.00000000137459 -0.00000000004050
-0.00000000023462 0.00000000114610 -0.00000000003134
-0.00000000036492 0.00000000177591 -0.00000000005482
-0.00000000056146 0.00000000272286 -0.00000000008650
-0.00000000036492 0.00000000177591 -0.00000000005482
-0.00000000056146 0.00000000272286 -0.00000000008650
 0.00000000056146 0.00000000272286  0.00000000008650
 0.00000000036492 0.00000000177591  0.00000000005482
 0.00000000056146 0.00000000272286  0.00000000008650
-0.00000000028035 0.00000000137459 -0.00000000004050
-0.00000000023462 0.00000000114610 -0.00000000003134
-0.00000000036492 0.00000000177591 -0.00000000005482
VECTORS poloidal double
0.00000000028035 -0.00000000137459 0.00000000004050
0.00000000023462 -0.00000000114610 0.00000000003134
0.00000000036492 -0.00000000177591 0.00000000005482
0.00000000056146 -0.00000000272286 0.00000000008650
0.00000000036492 -0.00000000177591 0.00000000005482
0.00000000056146 -0.00000000272286 0.00000000008650
0.00000000056146  0.00000000272286 0.00000000008650
0.00000000036492  0.00000000177591 0.00000000005482
0.00000000056146  0.00000000272286 0.00000000008650
0.00000000028035 -0.00000000137459 0.00000000004050
0.00000000023462 -0.00000000114610 0.00000000003134
0.00000000036492 -0.00000000177591 0.00000000005482
